0 	3698
1e-05 	11402.2
2e-05 	16024.7
3e-05 	17565.5
4e-05 	19722.7
5e-05 	15100.2
6e-05 	6163.33
7e-05 	5855.16
8e-05 	3081.66
9e-05 	2465.33
0.0001 	1540.83
