-120 	0.000605144
-110 	0.000302572
-100 	0.000907716
-90 	0.00242057
-80 	0.00363086
-70 	0.00907716
-60 	0.00937973
-50 	0.0154312
-40 	0.0163389
-30 	0.023298
-20 	0.0184569
-10 	0.000907716
