0 	0.000301205
10 	0.00783133
20 	0.0177711
30 	0.0162651
40 	0.0126506
50 	0.00963855
60 	0.00873494
70 	0.00572289
80 	0.010241
90 	0.0060241
100 	0.00391566
110 	0.000903614
120 	0
130 	0.000301205
