0 	177561
1e-05 	3386.35
2e-05 	1641.87
3e-05 	1710.28
4e-05 	1197.2
5e-05 	1197.2
6e-05 	855.139
7e-05 	478.878
8e-05 	307.85
9e-05 	376.261
0.0001 	136.822
