-100 	1.81242e-05
-90 	7.24966e-05
-80 	0.000289986
-70 	0.000598097
-60 	0.000670594
-50 	0.00125057
-40 	0.00177617
-30 	0.00206615
-20 	0.00471228
-10 	0.0837879
0 	0.0043498
10 	0.000362483
20 	0.000108745
