-40 	1.81176e-05
-30 	0.000199293
-20 	0.000362352
-10 	0.0413806
0 	0.0417067
10 	0.000779056
20 	0.00222846
30 	0.00431198
40 	0.00349669
50 	0.00153999
60 	0.00135882
70 	0.00114141
80 	0.00106894
90 	0.000307999
100 	9.05879e-05
110 	3.62352e-05
