0 	173218
1e-05 	3502.27
2e-05 	2018.95
3e-05 	1400.91
4e-05 	1812.94
5e-05 	1400.91
6e-05 	1194.89
7e-05 	741.656
8e-05 	906.469
9e-05 	329.625
0.0001 	164.813
