-110 	8.8349e-05
-100 	0.000198785
-90 	0.000265047
-80 	0.000508007
-70 	0.0010381
-60 	0.00114854
-50 	0.00150193
-40 	0.00218664
-30 	0.00234125
-20 	0.00426284
-10 	0.0818553
0 	0.00428493
10 	0.000265047
20 	6.62617e-05
30 	6.62617e-05
