-40 	8.83295e-05
-30 	0.000176659
-20 	0.000198741
-10 	0.0395495
0 	0.0427735
10 	0.000596224
20 	0.00156785
30 	0.00322403
40 	0.00382025
50 	0.00198741
60 	0.00141327
70 	0.0015016
80 	0.00114828
90 	0.00134702
100 	0.000441647
110 	0.000154577
120 	4.41647e-05
130 	0
140 	2.20824e-05
