0 	176988
1e-05 	3616.58
2e-05 	1824.29
3e-05 	1248.2
4e-05 	1216.19
5e-05 	1376.22
6e-05 	992.159
7e-05 	800.128
8e-05 	384.061
9e-05 	96.0154
