-90 	1.69866e-05
-80 	0.000118906
-70 	0.000152879
-60 	0.000526584
-50 	0.00108714
-40 	0.00171564
-30 	0.00224223
-20 	0.00451843
-10 	0.0839986
0 	0.00516392
10 	0.000407678
20 	0.000118906
