-40 	1.69779e-05
-30 	0.000135823
-20 	0.000526316
-10 	0.0417487
0 	0.0425806
10 	0.000882852
20 	0.00290323
30 	0.00455008
40 	0.00241087
50 	0.00173175
60 	0.00149406
70 	0.000730051
80 	0.000220713
90 	6.79117e-05
100 	1.69779e-05
