-20 	0.000191449
-10 	0.0308615
0 	0.0690364
10 	1.27632e-05
