-20 	6.88409e-05
-10 	0.0650202
0 	0.0698907
