-30 	0.000149523
-20 	0.000236745
-10 	0.0289203
0 	0.0703632
10 	0.000199365
20 	0.000199365
30 	1.24603e-05
