-20 	3.82044e-05
-10 	0.0977141
0 	0.00453359
