-20 	0.00027464
-10 	0.0499969
0 	0.0497347
10 	0.000262156
