0 	151376
1e-05 	7152.68
2e-05 	4126.55
3e-05 	3507.57
4e-05 	1444.29
5e-05 	2613.48
6e-05 	1994.5
7e-05 	1513.07
8e-05 	825.309
9e-05 	894.085
0.0001 	206.327
0.00011 	68.7758
