-130 	0.000117601
-120 	3.92003e-05
-110 	0.000274402
-100 	0.000392003
-90 	0.000980008
-80 	0.00196002
-70 	0.00203842
-60 	0.00286162
-50 	0.00442964
-40 	0.00631125
-30 	0.00674245
-20 	0.00627205
-10 	0.0639357
0 	0.00344963
10 	0.000156801
20 	0.000196002
