0 	149518
1e-05 	6165.7
2e-05 	4084.78
3e-05 	3622.35
4e-05 	2697.5
5e-05 	2466.28
6e-05 	1541.43
7e-05 	2080.92
8e-05 	1618.5
9e-05 	770.713
0.0001 	385.356
