-130 	8.81834e-05
-120 	4.40917e-05
-110 	0.000308642
-100 	0.000617284
-90 	0.00123457
-80 	0.00238095
-70 	0.00277778
-60 	0.00295414
-50 	0.00343915
-40 	0.00762787
-30 	0.00886243
-20 	0.00507055
-10 	0.0592593
0 	0.00511464
10 	0.000132275
20 	8.81834e-05
30 	8.81834e-05
