0 	175177
1e-05 	3986.23
2e-05 	1775.68
3e-05 	1485.78
4e-05 	1304.58
5e-05 	1195.87
6e-05 	942.2
7e-05 	942.2
8e-05 	543.577
9e-05 	217.431
0.0001 	36.2384
