-110 	1.93199e-05
-100 	1.93199e-05
-90 	0.000173879
-80 	0.000386399
-70 	0.000676198
-60 	0.00108192
-50 	0.00100464
-40 	0.00156491
-30 	0.00231839
-20 	0.00444359
-10 	0.0835201
0 	0.00438563
10 	0.000270479
20 	0.00013524
30 	1.93199e-05
