-50 	1.93255e-05
-40 	3.86511e-05
-30 	9.66277e-05
-20 	0.000251232
-10 	0.0406996
0 	0.0419171
10 	0.000792347
20 	0.00214513
30 	0.00419364
40 	0.00343995
50 	0.001662
60 	0.00137211
70 	0.00154604
80 	0.00121751
90 	0.000425162
100 	0.000154604
110 	7.73022e-05
