0 	167485
1e-05 	9422.69
2e-05 	1804.91
3e-05 	1512.94
4e-05 	902.455
5e-05 	1008.63
6e-05 	663.57
7e-05 	477.77
8e-05 	345.056
9e-05 	238.885
