-80 	1.44425e-05
-70 	8.66551e-05
-60 	0.000216638
-50 	0.000621028
-40 	0.00134315
-30 	0.00170422
-20 	0.00418833
-10 	0.0860485
0 	0.00574812
10 	7.22126e-05
