-30 	2.88788e-05
-20 	0.000433182
-10 	0.0401848
0 	0.0435781
10 	0.00216591
20 	0.00607898
30 	0.00343657
40 	0.00160277
50 	0.00166053
60 	0.000678651
70 	0.000158833
80 	1.44394e-05
