0 	160019
1e-05 	13640.6
2e-05 	1458.14
3e-05 	1317.03
4e-05 	1434.62
5e-05 	823.142
6e-05 	470.367
7e-05 	470.367
8e-05 	329.257
9e-05 	94.0734
