-80 	5.22637e-05
-70 	0.000143725
-60 	0.0005749
-50 	0.000888482
-40 	0.00113673
-30 	0.00163324
-20 	0.00442935
-10 	0.0847194
0 	0.0064415
10 	1.30659e-05
