-30 	2.61284e-05
-20 	0.000600954
-10 	0.0405382
0 	0.0431511
10 	0.00275655
20 	0.00581357
30 	0.00278268
40 	0.00151545
50 	0.00111046
60 	0.00111046
70 	0.000535633
80 	6.53211e-05
90 	1.30642e-05
