-30 	0.000147938
-20 	0.000308204
-10 	0.0313506
0 	0.0669543
10 	0.000332861
20 	0.000308204
30 	0.000665722
40 	1.23282e-05
