-20 	0.000678748
-10 	0.0960364
0 	0.00724851
