-20 	0.000509665
-10 	0.0504444
0 	0.0486419
10 	0.00131767
