-20 	3.9557e-05
-10 	0.0468552
0 	0.10625
