0 	137914
1e-05 	9551.66
2e-05 	4093.57
3e-05 	4288.5
4e-05 	3313.84
5e-05 	2436.65
6e-05 	2144.25
7e-05 	2241.72
8e-05 	1072.12
9e-05 	682.261
0.0001 	584.795
0.00011 	584.795
0.00012 	97.4659
