-30 	0.000170545
-20 	0.000401998
-10 	0.0307711
0 	0.065014
10 	0.00041418
20 	0.000158363
30 	0.00090145
40 	0.00141308
50 	0.000816177
60 	4.8727e-05
