-30 	2.5434e-05
-20 	0.00172951
-10 	0.0937623
0 	0.00899091
