-20 	0.00102324
-10 	0.0471183
0 	0.0491894
10 	0.00237934
20 	0.00160266
