0 	163618
1e-05 	11019.5
2e-05 	2073.96
3e-05 	1449.28
4e-05 	1149.43
5e-05 	1049.48
6e-05 	774.613
7e-05 	349.825
8e-05 	149.925
9e-05 	149.925
0.0001 	49.975
