-80 	2.7499e-05
-70 	9.62464e-05
-60 	0.000206242
-50 	0.000728723
-40 	0.00120995
-30 	0.00192493
-20 	0.00479857
-10 	0.0846418
0 	0.00633851
10 	8.24969e-05
