-30 	2.74914e-05
-20 	0.000728522
-10 	0.0402199
0 	0.0435052
10 	0.00251546
20 	0.0060756
30 	0.00292784
40 	0.00188316
50 	0.00145704
60 	0.000508591
70 	0.000151203
80 	2.74914e-05
