0 	165401
1e-05 	4905.06
2e-05 	3586.5
3e-05 	2215.19
4e-05 	1318.57
5e-05 	1371.31
6e-05 	1424.05
7e-05 	843.882
8e-05 	738.397
9e-05 	738.397
0.0001 	316.456
