-140 	8.66176e-05
-130 	5.77451e-05
-120 	0.00011549
-110 	0.00023098
-100 	0.000635196
-90 	0.00101054
-80 	0.000952793
-70 	0.00167461
-60 	0.00164573
-50 	0.00268515
-40 	0.00366681
-30 	0.0040999
-20 	0.00395554
-10 	0.0740003
0 	0.00487946
10 	0.00011549
20 	0.000173235
30 	0.00011549
