0 	173394
1e-05 	8015.14
2e-05 	1157.74
3e-05 	1157.74
4e-05 	645.664
5e-05 	690.193
6e-05 	623.4
7e-05 	645.664
8e-05 	333.964
9e-05 	66.7928
