-30 	7.16889e-05
-20 	0.000573511
-10 	0.0277794
0 	0.0583428
10 	0.000442081
20 	0.000358444
30 	0.000561563
40 	0.00139793
50 	0.0019595
60 	0.00168469
70 	0.00150547
80 	0.00109923
90 	0.000920007
100 	0.000633252
110 	0.000776629
120 	0.000704941
130 	0.00105144
140 	0.000346496
