-70 	2.38621e-05
-60 	5.96552e-05
-50 	0.000393724
-40 	0.00131241
-30 	0.0022311
-20 	0.00603711
-10 	0.0824793
0 	0.00742111
10 	0.000107379
