-20 	0.00109126
-10 	0.0418156
0 	0.0438422
10 	0.0026502
20 	0.00452093
30 	0.00306991
40 	0.00185874
50 	0.00127114
60 	0.000395731
70 	5.99592e-05
