0 	145988
1e-05 	6298.53
2e-05 	5004.31
3e-05 	3623.81
4e-05 	2674.72
5e-05 	2847.28
6e-05 	2502.16
7e-05 	1380.5
8e-05 	1898.19
9e-05 	690.25
0.0001 	172.563
