-140 	0.000149701
-130 	4.99002e-05
-120 	0.000149701
-110 	0.000249501
-100 	0.000548902
-90 	0.00219561
-80 	0.00264471
-70 	0.00269461
-60 	0.00394212
-50 	0.00508982
-40 	0.00833333
-30 	0.00788423
-20 	0.00523952
-10 	0.0517964
0 	0.00868263
10 	0.000199601
20 	0.000199601
30 	4.99002e-05
