0 	158037
1e-05 	6605.85
2e-05 	3271.47
3e-05 	2579.43
4e-05 	2076.12
5e-05 	2076.12
6e-05 	1572.82
7e-05 	880.78
8e-05 	1006.61
9e-05 	566.216
0.0001 	314.564
0.00011 	62.9129
