0 	170803
1e-05 	3414.31
2e-05 	2319.98
3e-05 	1926.02
4e-05 	2232.44
5e-05 	1838.48
6e-05 	1138.1
7e-05 	919.238
8e-05 	481.506
9e-05 	656.599
