-120 	2.35766e-05
-110 	4.71531e-05
-100 	0.000117883
-90 	0.000259342
-80 	0.00082518
-70 	0.00146175
-60 	0.00172109
-50 	0.0015089
-40 	0.00216904
-30 	0.00252269
-20 	0.00344218
-10 	0.0821408
0 	0.00344218
10 	0.000212189
20 	9.43063e-05
30 	4.71531e-05
