0 	185476
1e-05 	6867.75
2e-05 	348.028
3e-05 	92.8074
