-30 	0.00013249
-20 	0.000445649
-10 	0.0307016
0 	0.0608853
10 	0.000529961
20 	0.000349292
30 	0.000566095
40 	0.00134899
50 	0.00192713
60 	0.00151762
70 	0.00102379
80 	0.000433604
90 	0.000192713
100 	2.40891e-05
