-40 	1.20489e-05
-30 	0.000397614
-20 	0.00418097
-10 	0.0867884
0 	0.00851859
10 	0.000216881
