-20 	0.00126007
-10 	0.0442358
0 	0.0469013
10 	0.00237475
20 	0.00445871
30 	0.001357
40 	8.48125e-05
