0 	174292
1e-05 	3489.72
2e-05 	1628.54
3e-05 	2210.16
4e-05 	1550.99
5e-05 	1434.66
6e-05 	1085.69
7e-05 	620.396
8e-05 	426.522
9e-05 	310.198
0.0001 	77.5494
0.00011 	38.7747
