-100 	6.21762e-05
-90 	0.000145078
-80 	0.000414508
-70 	0.000725389
-60 	0.00116062
-50 	0.00153368
-40 	0.00165803
-30 	0.00238342
-20 	0.00426943
-10 	0.0829223
0 	0.00449741
10 	0.000186528
20 	6.21762e-05
30 	2.07254e-05
