-40 	4.14594e-05
-30 	8.29187e-05
-20 	0.000290216
-10 	0.0403814
0 	0.0429312
10 	0.000704809
20 	0.00186567
30 	0.00381426
40 	0.00317164
50 	0.0016791
60 	0.000932836
70 	0.0016791
80 	0.00114013
90 	0.000912106
100 	0.000269486
110 	8.29187e-05
120 	8.29187e-05
