0 	168345
1e-05 	8529.08
2e-05 	1789.71
3e-05 	1258.39
4e-05 	1398.21
5e-05 	922.819
6e-05 	782.998
7e-05 	643.177
8e-05 	475.391
9e-05 	55.9284
