-90 	1.51953e-05
-80 	1.51953e-05
-70 	0.000121562
-60 	0.000440663
-50 	0.00100289
-40 	0.00141316
-30 	0.00168667
-20 	0.0038596
-10 	0.0857165
0 	0.00565264
10 	0.000167148
