-30 	1.51837e-05
-20 	0.000364409
-10 	0.0402672
0 	0.0437291
10 	0.00176131
20 	0.00558761
30 	0.00343152
40 	0.00170058
50 	0.00154874
60 	0.00107804
70 	0.000379593
80 	0.000136654
90 	1.51837e-05
