-30 	2.52477e-05
-20 	0.000214606
-10 	0.0305498
0 	0.0691662
10 	3.78716e-05
20 	3.78716e-05
