-20 	3.85579e-05
-10 	0.0981556
0 	0.00365015
