-20 	7.57576e-05
-10 	0.0490783
0 	0.0508712
10 	2.52525e-05
