0 	164764
1e-05 	4959.63
2e-05 	3056.52
3e-05 	2479.82
4e-05 	1499.42
5e-05 	1845.44
6e-05 	1614.76
7e-05 	692.042
8e-05 	576.701
9e-05 	519.031
0.0001 	346.021
0.00011 	57.6701
