-130 	9.49067e-05
-120 	6.32711e-05
-110 	0.000221449
-100 	0.000601076
-90 	0.000885796
-80 	0.00151851
-70 	0.00211958
-60 	0.00246757
-50 	0.00275229
-40 	0.00379627
-30 	0.00528314
-20 	0.00458716
-10 	0.070832
0 	0.00436571
10 	0.000347991
20 	6.32711e-05
30 	3.16356e-05
40 	3.16356e-05
