0 	172633
1e-05 	5832.21
2e-05 	1973.98
3e-05 	1435.62
4e-05 	1405.71
5e-05 	1136.53
6e-05 	837.446
7e-05 	478.54
8e-05 	508.449
9e-05 	149.544
