-80 	3.21002e-05
-70 	6.42003e-05
-60 	0.000481502
-50 	0.00110746
-40 	0.00117166
-30 	0.00192601
-20 	0.00410882
-10 	0.0853543
0 	0.00545703
10 	0.000304951
20 	1.60501e-05
