-30 	9.63314e-05
-20 	0.000513767
-10 	0.0405555
0 	0.044184
10 	0.0010757
20 	0.00412619
30 	0.00419042
40 	0.00218351
50 	0.00160552
60 	0.00105965
70 	0.000321105
80 	0.000128442
90 	1.60552e-05
