0 	167195
1e-05 	10174.5
2e-05 	1779.4
3e-05 	1345.96
4e-05 	980.951
5e-05 	730.01
6e-05 	638.759
7e-05 	410.631
8e-05 	205.315
9e-05 	114.064
0.0001 	45.6256
