-80 	3.72833e-05
-70 	0.000136705
-60 	0.000323122
-50 	0.000907227
-40 	0.00120549
-30 	0.00157833
-20 	0.0050581
-10 	0.0847698
0 	0.00599018
10 	2.48555e-05
