-30 	4.97172e-05
-20 	0.000832764
-10 	0.0411659
0 	0.0422224
10 	0.00290846
20 	0.00572991
30 	0.0028836
40 	0.0014418
50 	0.00126779
60 	0.00100677
70 	0.000385309
80 	0.000111864
90 	3.72879e-05
