0 	170586
1e-05 	4182.16
2e-05 	1812.27
3e-05 	1905.2
4e-05 	1394.05
5e-05 	1579.93
6e-05 	1579.93
7e-05 	1022.3
8e-05 	697.026
9e-05 	278.81
0.0001 	232.342
0.00011 	46.4684
