-120 	5.01756e-05
-110 	5.01756e-05
-100 	0.000100351
-90 	0.000627195
-80 	0.000953337
-70 	0.00145509
-60 	0.0016558
-50 	0.0022579
-40 	0.0026844
-30 	0.00303562
-20 	0.00303562
-10 	0.0774461
0 	0.00622178
10 	0.000150527
20 	0.000200702
30 	7.52634e-05
40 	5.01756e-05
