0 	171145
1e-05 	3873.85
2e-05 	2532.9
3e-05 	1489.94
4e-05 	1489.94
5e-05 	1291.28
6e-05 	1042.96
7e-05 	943.63
8e-05 	794.636
9e-05 	595.977
0.0001 	347.653
0.00011 	49.6648
