-130 	0.000107109
-120 	8.0332e-05
-110 	0.000348106
-100 	0.000374883
-90 	0.000937207
-80 	0.000990762
-70 	0.00128531
-60 	0.00139242
-50 	0.00222252
-40 	0.00294551
-30 	0.00321328
-20 	0.00374883
-10 	0.0781631
0 	0.0036685
10 	0.000214219
20 	0.000267773
30 	8.0332e-05
40 	2.67773e-05
