0 	110944
1e-05 	14012.7
2e-05 	9380.43
3e-05 	4748.12
4e-05 	3821.66
5e-05 	3474.23
6e-05 	3474.23
7e-05 	2084.54
8e-05 	1621.31
9e-05 	1042.27
0.0001 	810.654
0.00011 	115.808
