0 	60482.7
1e-05 	29411.8
2e-05 	12971.3
3e-05 	7692.31
4e-05 	5128.21
5e-05 	3921.57
6e-05 	2413.27
7e-05 	2111.61
8e-05 	3318.25
9e-05 	1809.95
0.0001 	754.148
0.00011 	150.83
0.00012 	150.83
