-140 	0.000117994
-130 	0.000353982
-120 	0.000825959
-110 	0.0020059
-100 	0.00247788
-90 	0.00365782
-80 	0.00389381
-70 	0.00542773
-60 	0.00625369
-50 	0.00979351
-40 	0.0189971
-30 	0.0290265
-20 	0.0153392
-10 	0.00377581
