-10 	0.000116009
0 	0.00301624
10 	0.0104408
20 	0.0157773
30 	0.0176334
40 	0.0110209
50 	0.00777262
60 	0.00568445
70 	0.00591647
80 	0.00429234
90 	0.00406032
100 	0.00348028
110 	0.00301624
120 	0.00359629
130 	0.00266821
140 	0.000464037
150 	0.000580046
160 	0.000348028
170 	0.000348028
